<?xml version="1.0"?>

<!-- generated on 28-03-2019 22:42:41 by SUMO gui Version 0.12.3
<?xml version="1.0" encoding="iso-8859-1"?>

<configuration xmlns:xsi="http://www.w3.org/2001/XMLSchema-instance" xsi:noNamespaceSchemaLocation="http://sumo.sf.net/xsd/sumo-gui.exeConfiguration.xsd">

    <input>
        <net-file value="C:\Users\Student\Documents\105map.net.xml"/>
        <route-files value="C:\Users\Student\Documents\105rou.rou.xml"/>
    </input>

    <output>
        <netstate-dump value="C:\Users\Student\Documents\105sumo.sumo.tr"/>
        <emissions-output value="C:\Users\Student\Documents\output-emissions.xml"/>
        <tripinfo-output value="C:\Users\Student\Documents\output-tripinfos.xml"/>
        <vehroute-output value="C:\Users\Student\Documents\output-vehroutes.xml"/>
    </output>

    <time>
        <begin value="0"/>
        <end value="1000"/>
    </time>

    <processing>
        <route-steps value="-1"/>
        <time-to-teleport value="-1"/>
    </processing>

    <report>
        <print-options value="false"/>
    </report>

    <random_number>
        <srand value="23423"/>
    </random_number>

    <gui_only>
        <gui-settings-file value=""/>
    </gui_only>

</configuration>
-->

<sumo-netstate>
    <timestep time="0.00">
        <edge id="R01">
            <lane id="R01_0">
                <vehicle id="F0_0" pos="7.60" speed="0.00"/>
            </lane>
            <lane id="R01_1"/>
        </edge>
        <edge id="R34">
            <lane id="R34_0">
                <vehicle id="F1_0" pos="7.60" speed="0.00"/>
            </lane>
            <lane id="R34_1"/>
        </edge>
    </timestep>
    <timestep time="1.00">
        <edge id="R01">
            <lane id="R01_0">
                <vehicle id="F0_0" pos="9.31" speed="1.71"/>
            </lane>
            <lane id="R01_1"/>
        </edge>
        <edge id="R34">
            <lane id="R34_0">
                <vehicle id="F1_0" pos="9.08" speed="1.48"/>
            </lane>
            <lane id="R34_1"/>
        </edge>
    </timestep>
    <timestep time="2.00">
        <edge id="R01">
            <lane id="R01_0">
                <vehicle id="F0_0" pos="12.95" speed="3.64"/>
            </lane>
            <lane id="R01_1"/>
        </edge>
        <edge id="R34">
            <lane id="R34_0">
                <vehicle id="F1_0" pos="13.06" speed="3.97"/>
            </lane>
            <lane id="R34_1"/>
        </edge>
    </timestep>
    <timestep time="3.00">
        <edge id="R01">
            <lane id="R01_0">
                <vehicle id="F0_0" pos="19.01" speed="6.06"/>
            </lane>
            <lane id="R01_1"/>
        </edge>
        <edge id="R34">
            <lane id="R34_0">
                <vehicle id="F1_0" pos="18.79" speed="5.73"/>
            </lane>
            <lane id="R34_1"/>
        </edge>
    </timestep>
    <timestep time="4.00">
        <edge id="R01">
            <lane id="R01_0">
                <vehicle id="F0_0" pos="27.16" speed="8.15"/>
            </lane>
            <lane id="R01_1"/>
        </edge>
        <edge id="R34">
            <lane id="R34_0"/>
            <lane id="R34_1">
                <vehicle id="F1_0" pos="26.05" speed="7.26"/>
            </lane>
        </edge>
    </timestep>
    <timestep time="5.00">
        <edge id="R01">
            <lane id="R01_0">
                <vehicle id="F0_0" pos="36.78" speed="9.62"/>
            </lane>
            <lane id="R01_1"/>
        </edge>
        <edge id="R34">
            <lane id="R34_0"/>
            <lane id="R34_1">
                <vehicle id="F1_0" pos="35.03" speed="8.98"/>
            </lane>
        </edge>
    </timestep>
    <timestep time="6.00">
        <edge id="R01">
            <lane id="R01_0">
                <vehicle id="F0_0" pos="47.92" speed="11.14"/>
            </lane>
            <lane id="R01_1"/>
        </edge>
        <edge id="R34">
            <lane id="R34_0"/>
            <lane id="R34_1">
                <vehicle id="F1_0" pos="46.27" speed="11.24"/>
            </lane>
        </edge>
    </timestep>
    <timestep time="7.00">
        <edge id="R01">
            <lane id="R01_0">
                <vehicle id="F0_0" pos="60.77" speed="12.85"/>
            </lane>
            <lane id="R01_1"/>
        </edge>
        <edge id="R34">
            <lane id="R34_0"/>
            <lane id="R34_1">
                <vehicle id="F1_0" pos="58.28" speed="12.00"/>
            </lane>
        </edge>
    </timestep>
    <timestep time="8.00">
        <edge id="R01">
            <lane id="R01_0">
                <vehicle id="F0_0" pos="75.47" speed="14.70"/>
            </lane>
            <lane id="R01_1"/>
        </edge>
        <edge id="R34">
            <lane id="R34_0"/>
            <lane id="R34_1">
                <vehicle id="F1_0" pos="66.59" speed="8.31"/>
            </lane>
        </edge>
    </timestep>
    <timestep time="9.00">
        <edge id="D14">
            <lane id="D14_0"/>
            <lane id="D14_1">
                <vehicle id="F0_0" pos="2.39" speed="15.89"/>
            </lane>
        </edge>
        <edge id="R34">
            <lane id="R34_0"/>
            <lane id="R34_1">
                <vehicle id="F1_0" pos="72.32" speed="5.73"/>
            </lane>
        </edge>
    </timestep>
    <timestep time="10.00">
        <edge id=":n4_9">
            <lane id=":n4_9_0">
                <vehicle id="F1_0" pos="3.52" speed="7.34"/>
            </lane>
        </edge>
        <edge id="D14">
            <lane id="D14_0"/>
            <lane id="D14_1">
                <vehicle id="F0_0" pos="19.98" speed="17.59"/>
            </lane>
        </edge>
    </timestep>
    <timestep time="11.00">
        <edge id=":n4_9">
            <lane id=":n4_9_0">
                <vehicle id="F1_0" pos="12.61" speed="9.09"/>
            </lane>
        </edge>
        <edge id="D14">
            <lane id="D14_0"/>
            <lane id="D14_1">
                <vehicle id="F0_0" pos="39.47" speed="19.49"/>
            </lane>
        </edge>
    </timestep>
    <timestep time="12.00">
        <edge id=":n4_9">
            <lane id=":n4_9_0">
                <vehicle id="F1_0" pos="23.27" speed="10.66"/>
            </lane>
        </edge>
        <edge id="D14">
            <lane id="D14_0"/>
            <lane id="D14_1">
                <vehicle id="F0_0" pos="55.17" speed="15.70"/>
            </lane>
        </edge>
    </timestep>
    <timestep time="13.00">
        <edge id="D14">
            <lane id="D14_0"/>
            <lane id="D14_1">
                <vehicle id="F0_0" pos="66.38" speed="11.21"/>
            </lane>
        </edge>
        <edge id="U41">
            <lane id="U41_0"/>
            <lane id="U41_1">
                <vehicle id="F1_0" pos="11.71" speed="11.99"/>
            </lane>
        </edge>
    </timestep>
    <timestep time="14.00">
        <edge id="D14">
            <lane id="D14_0"/>
            <lane id="D14_1">
                <vehicle id="F0_0" pos="74.79" speed="8.41"/>
            </lane>
        </edge>
        <edge id="U41">
            <lane id="U41_0"/>
            <lane id="U41_1">
                <vehicle id="F1_0" pos="24.93" speed="13.22"/>
            </lane>
        </edge>
    </timestep>
    <timestep time="15.00">
        <edge id="D14">
            <lane id="D14_0"/>
            <lane id="D14_1">
                <vehicle id="F0_0" pos="80.15" speed="5.36"/>
            </lane>
        </edge>
        <edge id="U41">
            <lane id="U41_0"/>
            <lane id="U41_1">
                <vehicle id="F1_0" pos="39.71" speed="14.78"/>
            </lane>
        </edge>
    </timestep>
    <timestep time="16.00">
        <edge id=":n4_1">
            <lane id=":n4_1_0">
                <vehicle id="F0_0" pos="3.59" speed="7.41"/>
            </lane>
        </edge>
        <edge id="U41">
            <lane id="U41_0"/>
            <lane id="U41_1">
                <vehicle id="F1_0" pos="55.64" speed="15.93"/>
            </lane>
        </edge>
    </timestep>
    <timestep time="17.00">
        <edge id=":n4_1">
            <lane id=":n4_1_0">
                <vehicle id="F0_0" pos="13.15" speed="9.56"/>
            </lane>
        </edge>
        <edge id="U41">
            <lane id="U41_0"/>
            <lane id="U41_1">
                <vehicle id="F1_0" pos="66.91" speed="11.27"/>
            </lane>
        </edge>
    </timestep>
    <timestep time="18.00">
        <edge id="R45">
            <lane id="R45_0"/>
            <lane id="R45_1">
                <vehicle id="F0_0" pos="9.33" speed="11.77"/>
            </lane>
        </edge>
        <edge id="U41">
            <lane id="U41_0"/>
            <lane id="U41_1">
                <vehicle id="F1_0" pos="74.50" speed="7.60"/>
            </lane>
        </edge>
    </timestep>
    <timestep time="19.00">
        <edge id="R45">
            <lane id="R45_0"/>
            <lane id="R45_1">
                <vehicle id="F0_0" pos="22.55" speed="13.22"/>
            </lane>
        </edge>
        <edge id="U41">
            <lane id="U41_0"/>
            <lane id="U41_1">
                <vehicle id="F1_0" pos="79.88" speed="5.37"/>
            </lane>
        </edge>
    </timestep>
    <timestep time="20.00">
        <edge id=":n1_5">
            <lane id=":n1_5_0">
                <vehicle id="F1_0" pos="3.54" speed="7.63"/>
            </lane>
        </edge>
        <edge id="R45">
            <lane id="R45_0"/>
            <lane id="R45_1">
                <vehicle id="F0_0" pos="37.74" speed="15.20"/>
            </lane>
        </edge>
    </timestep>
    <timestep time="21.00">
        <edge id=":n1_5">
            <lane id=":n1_5_0">
                <vehicle id="F1_0" pos="12.41" speed="8.87"/>
            </lane>
        </edge>
        <edge id="R45">
            <lane id="R45_0"/>
            <lane id="R45_1">
                <vehicle id="F0_0" pos="54.57" speed="16.83"/>
            </lane>
        </edge>
    </timestep>
    <timestep time="22.00">
        <edge id="L10">
            <lane id="L10_0"/>
            <lane id="L10_1">
                <vehicle id="F1_0" pos="7.66" speed="10.90"/>
            </lane>
        </edge>
        <edge id="R45">
            <lane id="R45_0"/>
            <lane id="R45_1">
                <vehicle id="F0_0" pos="73.13" speed="18.55"/>
            </lane>
        </edge>
    </timestep>
    <timestep time="23.00">
        <edge id=":n5_4">
            <lane id=":n5_4_0">
                <vehicle id="F0_0" pos="7.66" speed="19.94"/>
            </lane>
        </edge>
        <edge id="L10">
            <lane id="L10_0"/>
            <lane id="L10_1">
                <vehicle id="F1_0" pos="20.58" speed="12.92"/>
            </lane>
        </edge>
    </timestep>
    <timestep time="24.00">
        <edge id="L10">
            <lane id="L10_0"/>
            <lane id="L10_1">
                <vehicle id="F1_0" pos="35.37" speed="14.79"/>
            </lane>
        </edge>
        <edge id="U52">
            <lane id="U52_0"/>
            <lane id="U52_1">
                <vehicle id="F0_0" pos="15.51" speed="21.07"/>
            </lane>
        </edge>
    </timestep>
    <timestep time="25.00">
        <edge id="L10">
            <lane id="L10_0"/>
            <lane id="L10_1">
                <vehicle id="F1_0" pos="51.55" speed="16.18"/>
            </lane>
        </edge>
        <edge id="U52">
            <lane id="U52_0"/>
            <lane id="U52_1">
                <vehicle id="F0_0" pos="38.32" speed="22.81"/>
            </lane>
        </edge>
    </timestep>
    <timestep time="26.00">
        <edge id="L10">
            <lane id="L10_0"/>
            <lane id="L10_1">
                <vehicle id="F1_0" pos="69.16" speed="17.61"/>
            </lane>
        </edge>
        <edge id="U52">
            <lane id="U52_0"/>
            <lane id="U52_1">
                <vehicle id="F0_0" pos="62.28" speed="23.96"/>
            </lane>
        </edge>
    </timestep>
    <timestep time="27.00">
        <edge id=":n0_2">
            <lane id=":n0_2_0">
                <vehicle id="F1_0" pos="3.86" speed="18.68"/>
            </lane>
        </edge>
        <edge id=":n2_1">
            <lane id=":n2_1_0">
                <vehicle id="F0_0" pos="0.48" speed="25.10"/>
            </lane>
        </edge>
    </timestep>
    <timestep time="28.00">
        <edge id="D04">
            <lane id="D04_0">
                <vehicle id="F1_0" pos="2.68" speed="20.30"/>
            </lane>
            <lane id="D04_1"/>
        </edge>
        <edge id="L21">
            <lane id="L21_0"/>
            <lane id="L21_1">
                <vehicle id="F0_0" pos="12.03" speed="24.77"/>
            </lane>
        </edge>
    </timestep>
    <timestep time="29.00">
        <edge id="D04">
            <lane id="D04_0">
                <vehicle id="F1_0" pos="24.39" speed="21.71"/>
            </lane>
            <lane id="D04_1"/>
        </edge>
        <edge id="L21">
            <lane id="L21_0"/>
            <lane id="L21_1">
                <vehicle id="F0_0" pos="33.10" speed="21.07"/>
            </lane>
        </edge>
    </timestep>
    <timestep time="30.00">
        <edge id="D04">
            <lane id="D04_0">
                <vehicle id="F1_0" pos="47.35" speed="22.96"/>
            </lane>
            <lane id="D04_1"/>
        </edge>
        <edge id="L21">
            <lane id="L21_0"/>
            <lane id="L21_1">
                <vehicle id="F0_0" pos="49.83" speed="16.73"/>
            </lane>
        </edge>
    </timestep>
    <timestep time="31.00">
        <edge id="D04">
            <lane id="D04_0">
                <vehicle id="F1_0" pos="66.24" speed="18.89"/>
            </lane>
            <lane id="D04_1"/>
        </edge>
        <edge id="L21">
            <lane id="L21_0"/>
            <lane id="L21_1">
                <vehicle id="F0_0" pos="63.11" speed="13.28"/>
            </lane>
        </edge>
    </timestep>
    <timestep time="32.00">
        <edge id="D04">
            <lane id="D04_0">
                <vehicle id="F1_0" pos="81.21" speed="14.97"/>
            </lane>
            <lane id="D04_1"/>
        </edge>
        <edge id="L21">
            <lane id="L21_0"/>
            <lane id="L21_1">
                <vehicle id="F0_0" pos="73.44" speed="10.33"/>
            </lane>
        </edge>
    </timestep>
    <timestep time="33.00">
        <edge id="D04">
            <lane id="D04_0">
                <vehicle id="F1_0" pos="92.24" speed="11.02"/>
            </lane>
            <lane id="D04_1"/>
        </edge>
        <edge id="L21">
            <lane id="L21_0"/>
            <lane id="L21_1">
                <vehicle id="F0_0" pos="79.61" speed="6.17"/>
            </lane>
        </edge>
    </timestep>
    <timestep time="34.00">
        <edge id="D04">
            <lane id="D04_0">
                <vehicle id="F1_0" pos="98.97" speed="6.73"/>
            </lane>
            <lane id="D04_1"/>
        </edge>
        <edge id="L21">
            <lane id="L21_0"/>
            <lane id="L21_1">
                <vehicle id="F0_0" pos="83.53" speed="3.93"/>
            </lane>
        </edge>
    </timestep>
    <timestep time="35.00">
        <edge id=":n1_2">
            <lane id=":n1_2_0">
                <vehicle id="F0_0" pos="3.34" speed="5.21"/>
            </lane>
        </edge>
        <edge id="D04">
            <lane id="D04_0">
                <vehicle id="F1_0" pos="103.78" speed="4.81"/>
            </lane>
            <lane id="D04_1"/>
        </edge>
    </timestep>
    <timestep time="36.00">
        <edge id=":n1_2">
            <lane id=":n1_2_0">
                <vehicle id="F0_0" pos="10.56" speed="7.22"/>
            </lane>
        </edge>
        <edge id=":n4_11">
            <lane id=":n4_11_0">
                <vehicle id="F1_0" pos="3.84" speed="6.87"/>
            </lane>
        </edge>
    </timestep>
    <timestep time="37.00">
        <edge id="D14">
            <lane id="D14_0"/>
            <lane id="D14_1">
                <vehicle id="F0_0" pos="4.38" speed="9.46"/>
            </lane>
        </edge>
        <edge id="L43">
            <lane id="L43_0">
                <vehicle id="F1_0" pos="5.77" speed="8.57"/>
            </lane>
            <lane id="L43_1"/>
        </edge>
    </timestep>
    <timestep time="38.00">
        <edge id="D14">
            <lane id="D14_0"/>
            <lane id="D14_1">
                <vehicle id="F0_0" pos="15.89" speed="11.51"/>
            </lane>
        </edge>
        <edge id="L43">
            <lane id="L43_0"/>
            <lane id="L43_1">
                <vehicle id="F1_0" pos="16.40" speed="10.62"/>
            </lane>
        </edge>
    </timestep>
    <timestep time="39.00">
        <edge id="D14">
            <lane id="D14_0"/>
            <lane id="D14_1">
                <vehicle id="F0_0" pos="29.49" speed="13.60"/>
            </lane>
        </edge>
        <edge id="L43">
            <lane id="L43_0"/>
            <lane id="L43_1">
                <vehicle id="F1_0" pos="29.18" speed="12.78"/>
            </lane>
        </edge>
    </timestep>
    <timestep time="40.00">
        <edge id="D14">
            <lane id="D14_0"/>
            <lane id="D14_1">
                <vehicle id="F0_0" pos="44.83" speed="15.34"/>
            </lane>
        </edge>
        <edge id="L43">
            <lane id="L43_0"/>
            <lane id="L43_1">
                <vehicle id="F1_0" pos="43.35" speed="14.17"/>
            </lane>
        </edge>
        <edge id="R01">
            <lane id="R01_0">
                <vehicle id="F0_1" pos="7.60" speed="0.00"/>
            </lane>
            <lane id="R01_1"/>
        </edge>
        <edge id="R34">
            <lane id="R34_0">
                <vehicle id="F1_1" pos="7.60" speed="0.00"/>
            </lane>
            <lane id="R34_1"/>
        </edge>
    </timestep>
    <timestep time="41.00">
        <edge id="D14">
            <lane id="D14_0"/>
            <lane id="D14_1">
                <vehicle id="F0_0" pos="59.19" speed="14.37"/>
            </lane>
        </edge>
        <edge id="L43">
            <lane id="L43_0"/>
            <lane id="L43_1">
                <vehicle id="F1_0" pos="55.89" speed="12.54"/>
            </lane>
        </edge>
        <edge id="R01">
            <lane id="R01_0">
                <vehicle id="F0_1" pos="9.93" speed="2.33"/>
            </lane>
            <lane id="R01_1"/>
        </edge>
        <edge id="R34">
            <lane id="R34_0">
                <vehicle id="F1_1" pos="9.84" speed="2.24"/>
            </lane>
            <lane id="R34_1"/>
        </edge>
    </timestep>
    <timestep time="42.00">
        <edge id="D14">
            <lane id="D14_0"/>
            <lane id="D14_1">
                <vehicle id="F0_0" pos="69.39" speed="10.19"/>
            </lane>
        </edge>
        <edge id="L43">
            <lane id="L43_0"/>
            <lane id="L43_1">
                <vehicle id="F1_0" pos="65.05" speed="9.16"/>
            </lane>
        </edge>
        <edge id="R01">
            <lane id="R01_0">
                <vehicle id="F0_1" pos="14.31" speed="4.38"/>
            </lane>
            <lane id="R01_1"/>
        </edge>
        <edge id="R34">
            <lane id="R34_0">
                <vehicle id="F1_1" pos="13.85" speed="4.01"/>
            </lane>
            <lane id="R34_1"/>
        </edge>
    </timestep>
    <timestep time="43.00">
        <edge id="D14">
            <lane id="D14_0"/>
            <lane id="D14_1">
                <vehicle id="F0_0" pos="76.07" speed="6.68"/>
            </lane>
        </edge>
        <edge id="L43">
            <lane id="L43_0"/>
            <lane id="L43_1">
                <vehicle id="F1_0" pos="71.07" speed="6.03"/>
            </lane>
        </edge>
        <edge id="R01">
            <lane id="R01_0">
                <vehicle id="F0_1" pos="20.63" speed="6.32"/>
            </lane>
            <lane id="R01_1"/>
        </edge>
        <edge id="R34">
            <lane id="R34_0">
                <vehicle id="F1_1" pos="19.61" speed="5.77"/>
            </lane>
            <lane id="R34_1"/>
        </edge>
    </timestep>
    <timestep time="44.00">
        <edge id="D14">
            <lane id="D14_0"/>
            <lane id="D14_1">
                <vehicle id="F0_0" pos="80.07" speed="4.00"/>
            </lane>
        </edge>
        <edge id="L43">
            <lane id="L43_0"/>
            <lane id="L43_1">
                <vehicle id="F1_0" pos="74.56" speed="3.49"/>
            </lane>
        </edge>
        <edge id="R01">
            <lane id="R01_0">
                <vehicle id="F0_1" pos="28.98" speed="8.34"/>
            </lane>
            <lane id="R01_1"/>
        </edge>
        <edge id="R34">
            <lane id="R34_0"/>
            <lane id="R34_1">
                <vehicle id="F1_1" pos="27.74" speed="8.13"/>
            </lane>
        </edge>
    </timestep>
    <timestep time="45.00">
        <edge id=":n3_5">
            <lane id=":n3_5_0">
                <vehicle id="F1_0" pos="3.79" speed="5.37"/>
            </lane>
        </edge>
        <edge id=":n4_1">
            <lane id=":n4_1_0">
                <vehicle id="F0_0" pos="2.05" speed="5.95"/>
            </lane>
        </edge>
        <edge id="R01">
            <lane id="R01_0">
                <vehicle id="F0_1" pos="38.59" speed="9.61"/>
            </lane>
            <lane id="R01_1"/>
        </edge>
        <edge id="R34">
            <lane id="R34_0"/>
            <lane id="R34_1">
                <vehicle id="F1_1" pos="37.48" speed="9.73"/>
            </lane>
        </edge>
    </timestep>
    <timestep time="46.00">
        <edge id=":n4_1">
            <lane id=":n4_1_0">
                <vehicle id="F0_0" pos="9.73" speed="7.67"/>
            </lane>
        </edge>
        <edge id="R01">
            <lane id="R01_0">
                <vehicle id="F0_1" pos="49.96" speed="11.37"/>
            </lane>
            <lane id="R01_1"/>
        </edge>
        <edge id="R34">
            <lane id="R34_0"/>
            <lane id="R34_1">
                <vehicle id="F1_0" pos="5.73" speed="6.76"/>
                <vehicle id="F1_1" pos="48.68" speed="11.21"/>
            </lane>
        </edge>
    </timestep>
    <timestep time="47.00">
        <edge id="R01">
            <lane id="R01_0">
                <vehicle id="F0_1" pos="63.07" speed="13.11"/>
            </lane>
            <lane id="R01_1"/>
        </edge>
        <edge id="R34">
            <lane id="R34_0"/>
            <lane id="R34_1">
                <vehicle id="F1_0" pos="13.74" speed="8.01"/>
                <vehicle id="F1_1" pos="60.21" speed="11.53"/>
            </lane>
        </edge>
        <edge id="R45">
            <lane id="R45_0"/>
            <lane id="R45_1">
                <vehicle id="F0_0" pos="3.75" speed="9.61"/>
            </lane>
        </edge>
    </timestep>
    <timestep time="48.00">
        <edge id="R01">
            <lane id="R01_0">
                <vehicle id="F0_1" pos="77.62" speed="14.55"/>
            </lane>
            <lane id="R01_1"/>
        </edge>
        <edge id="R34">
            <lane id="R34_0"/>
            <lane id="R34_1">
                <vehicle id="F1_0" pos="23.94" speed="10.20"/>
                <vehicle id="F1_1" pos="67.97" speed="7.76"/>
            </lane>
        </edge>
        <edge id="R45">
            <lane id="R45_0"/>
            <lane id="R45_1">
                <vehicle id="F0_0" pos="14.84" speed="11.10"/>
            </lane>
        </edge>
    </timestep>
    <timestep time="49.00">
        <edge id="D14">
            <lane id="D14_0"/>
            <lane id="D14_1">
                <vehicle id="F0_1" pos="5.14" speed="16.49"/>
            </lane>
        </edge>
        <edge id="R34">
            <lane id="R34_0"/>
            <lane id="R34_1">
                <vehicle id="F1_0" pos="36.06" speed="12.12"/>
                <vehicle id="F1_1" pos="72.30" speed="4.33"/>
            </lane>
        </edge>
        <edge id="R45">
            <lane id="R45_0"/>
            <lane id="R45_1">
                <vehicle id="F0_0" pos="27.30" speed="12.46"/>
            </lane>
        </edge>
    </timestep>
    <timestep time="50.00">
        <edge id=":n4_9">
            <lane id=":n4_9_0">
                <vehicle id="F1_1" pos="2.49" speed="6.33"/>
            </lane>
        </edge>
        <edge id="D14">
            <lane id="D14_0"/>
            <lane id="D14_1">
                <vehicle id="F0_1" pos="22.93" speed="17.79"/>
            </lane>
        </edge>
        <edge id="R34">
            <lane id="R34_0"/>
            <lane id="R34_1">
                <vehicle id="F1_0" pos="47.31" speed="11.25"/>
            </lane>
        </edge>
        <edge id="R45">
            <lane id="R45_0"/>
            <lane id="R45_1">
                <vehicle id="F0_0" pos="41.75" speed="14.45"/>
            </lane>
        </edge>
    </timestep>
    <timestep time="51.00">
        <edge id=":n4_9">
            <lane id=":n4_9_0">
                <vehicle id="F1_1" pos="10.41" speed="7.93"/>
            </lane>
        </edge>
        <edge id="D14">
            <lane id="D14_0"/>
            <lane id="D14_1">
                <vehicle id="F0_1" pos="41.85" speed="18.91"/>
            </lane>
        </edge>
        <edge id="R34">
            <lane id="R34_0"/>
            <lane id="R34_1">
                <vehicle id="F1_0" pos="58.23" speed="10.92"/>
            </lane>
        </edge>
        <edge id="R45">
            <lane id="R45_0"/>
            <lane id="R45_1">
                <vehicle id="F0_0" pos="57.53" speed="15.78"/>
            </lane>
        </edge>
    </timestep>
    <timestep time="52.00">
        <edge id=":n4_9">
            <lane id=":n4_9_0">
                <vehicle id="F1_1" pos="19.64" speed="9.23"/>
            </lane>
        </edge>
        <edge id="D14">
            <lane id="D14_0"/>
            <lane id="D14_1">
                <vehicle id="F0_1" pos="56.34" speed="14.49"/>
            </lane>
        </edge>
        <edge id="R34">
            <lane id="R34_0"/>
            <lane id="R34_1">
                <vehicle id="F1_0" pos="67.03" speed="8.80"/>
            </lane>
        </edge>
        <edge id="R45">
            <lane id="R45_0"/>
            <lane id="R45_1">
                <vehicle id="F0_0" pos="68.59" speed="11.05"/>
            </lane>
        </edge>
    </timestep>
    <timestep time="53.00">
        <edge id="D14">
            <lane id="D14_0"/>
            <lane id="D14_1">
                <vehicle id="F0_1" pos="67.87" speed="11.53"/>
            </lane>
        </edge>
        <edge id="R34">
            <lane id="R34_0"/>
            <lane id="R34_1">
                <vehicle id="F1_0" pos="72.12" speed="5.10"/>
            </lane>
        </edge>
        <edge id="R45">
            <lane id="R45_0"/>
            <lane id="R45_1">
                <vehicle id="F0_0" pos="76.43" speed="7.84"/>
            </lane>
        </edge>
        <edge id="U41">
            <lane id="U41_0"/>
            <lane id="U41_1">
                <vehicle id="F1_1" pos="6.93" speed="10.84"/>
            </lane>
        </edge>
    </timestep>
    <timestep time="54.00">
        <edge id=":n4_9">
            <lane id=":n4_9_0">
                <vehicle id="F1_0" pos="2.80" speed="6.82"/>
            </lane>
        </edge>
        <edge id="D14">
            <lane id="D14_0"/>
            <lane id="D14_1">
                <vehicle id="F0_1" pos="75.79" speed="7.92"/>
            </lane>
        </edge>
        <edge id="R45">
            <lane id="R45_0"/>
            <lane id="R45_1">
                <vehicle id="F0_0" pos="81.16" speed="4.73"/>
            </lane>
        </edge>
        <edge id="U41">
            <lane id="U41_0"/>
            <lane id="U41_1">
                <vehicle id="F1_1" pos="19.68" speed="12.75"/>
            </lane>
        </edge>
    </timestep>
    <timestep time="55.00">
        <edge id=":n4_9">
            <lane id=":n4_9_0">
                <vehicle id="F1_0" pos="11.25" speed="8.44"/>
            </lane>
        </edge>
        <edge id=":n5_5">
            <lane id=":n5_5_0">
                <vehicle id="F0_0" pos="1.92" speed="6.16"/>
            </lane>
        </edge>
        <edge id="D14">
            <lane id="D14_0"/>
            <lane id="D14_1">
                <vehicle id="F0_1" pos="80.85" speed="5.07"/>
            </lane>
        </edge>
        <edge id="U41">
            <lane id="U41_0"/>
            <lane id="U41_1">
                <vehicle id="F1_1" pos="33.97" speed="14.29"/>
            </lane>
        </edge>
    </timestep>
    <timestep time="56.00">
        <edge id=":n4_9">
            <lane id=":n4_9_0">
                <vehicle id="F1_0" pos="21.37" speed="10.12"/>
            </lane>
        </edge>
        <edge id="D14">
            <lane id="D14_0"/>
            <lane id="D14_1">
                <vehicle id="F0_1" pos="82.15" speed="1.29"/>
            </lane>
        </edge>
        <edge id="L54">
            <lane id="L54_0"/>
            <lane id="L54_1">
                <vehicle id="F0_0" pos="5.62" speed="8.51"/>
            </lane>
        </edge>
        <edge id="U41">
            <lane id="U41_0"/>
            <lane id="U41_1">
                <vehicle id="F1_1" pos="49.51" speed="15.54"/>
            </lane>
        </edge>
    </timestep>
    <timestep time="57.00">
        <edge id="D14">
            <lane id="D14_0"/>
            <lane id="D14_1">
                <vehicle id="F0_1" pos="83.33" speed="1.18"/>
            </lane>
        </edge>