<?xml version="1.0"?>

<!-- generated on 28-03-2019 22:02:17 by SUMO gui Version 0.12.3
<?xml version="1.0" encoding="iso-8859-1"?>

<configuration xmlns:xsi="http://www.w3.org/2001/XMLSchema-instance" xsi:noNamespaceSchemaLocation="http://sumo.sf.net/xsd/sumo-gui.exeConfiguration.xsd">

    <input>
        <net-file value="C:\Users\Student\Documents\105map.net.xml"/>
        <route-files value="C:\Users\Student\Documents\105rou.rou.xml"/>
    </input>

    <output>
        <netstate-dump value="C:\Users\Student\Documents\105sumo.sumo.tr"/>
        <emissions-output value="C:\Users\Student\Documents\output-emissions.xml"/>
        <tripinfo-output value="C:\Users\Student\Documents\output-tripinfos.xml"/>
        <vehroute-output value="C:\Users\Student\Documents\output-vehroutes.xml"/>
    </output>

    <time>
        <begin value="0"/>
        <end value="1000"/>
    </time>

    <processing>
        <route-steps value="-1"/>
        <time-to-teleport value="-1"/>
    </processing>

    <report>
        <print-options value="false"/>
    </report>

    <random_number>
        <srand value="23423"/>
    </random_number>

    <gui_only>
        <gui-settings-file value=""/>
    </gui_only>

</configuration>
-->

<sumo-netstate>
    <timestep time="0.00">
        <edge id="R01">
            <lane id="R01_0">
                <vehicle id="F0_0" pos="7.60" speed="0.00"/>
            </lane>
            <lane id="R01_1"/>
        </edge>
        <edge id="R34">
            <lane id="R34_0">
                <vehicle id="F1_0" pos="7.60" speed="0.00"/>
            </lane>
            <lane id="R34_1"/>
        </edge>
    </timestep>
    <timestep time="1.00">
        <edge id="R01">
            <lane id="R01_0">
                <vehicle id="F0_0" pos="9.08" speed="1.48"/>
            </lane>
            <lane id="R01_1"/>
        </edge>
        <edge id="R34">
            <lane id="R34_0">
                <vehicle id="F1_0" pos="9.31" speed="1.71"/>
            </lane>
            <lane id="R34_1"/>
        </edge>
    </timestep>
    <timestep time="2.00">
        <edge id="R01">
            <lane id="R01_0">
                <vehicle id="F0_0" pos="13.06" speed="3.97"/>
            </lane>
            <lane id="R01_1"/>
        </edge>
        <edge id="R34">
            <lane id="R34_0">
                <vehicle id="F1_0" pos="12.95" speed="3.64"/>
            </lane>
            <lane id="R34_1"/>
        </edge>
    </timestep>
    <timestep time="3.00">
        <edge id="R01">
            <lane id="R01_0">
                <vehicle id="F0_0" pos="18.79" speed="5.73"/>
            </lane>
            <lane id="R01_1"/>
        </edge>
        <edge id="R34">
            <lane id="R34_0">
                <vehicle id="F1_0" pos="19.01" speed="6.06"/>
            </lane>
            <lane id="R34_1"/>
        </edge>
    </timestep>
    <timestep time="4.00">
        <edge id="R01">
            <lane id="R01_0">
                <vehicle id="F0_0" pos="26.05" speed="7.26"/>
            </lane>
            <lane id="R01_1"/>
        </edge>
        <edge id="R34">
            <lane id="R34_0">
                <vehicle id="F1_0" pos="27.16" speed="8.15"/>
            </lane>
            <lane id="R34_1"/>
        </edge>
    </timestep>
    <timestep time="5.00">
        <edge id="R01">
            <lane id="R01_0">
                <vehicle id="F0_0" pos="35.03" speed="8.98"/>
            </lane>
            <lane id="R01_1"/>
        </edge>
        <edge id="R34">
            <lane id="R34_0"/>
            <lane id="R34_1">
                <vehicle id="F1_0" pos="36.78" speed="9.62"/>
            </lane>
        </edge>
    </timestep>
    <timestep time="6.00">
        <edge id="R01">
            <lane id="R01_0">
                <vehicle id="F0_0" pos="45.55" speed="10.51"/>
            </lane>
            <lane id="R01_1"/>
        </edge>
        <edge id="R34">
            <lane id="R34_0"/>
            <lane id="R34_1">
                <vehicle id="F1_0" pos="48.64" speed="11.86"/>
            </lane>
        </edge>
    </timestep>
    <timestep time="7.00">
        <edge id="R01">
            <lane id="R01_0">
                <vehicle id="F0_0" pos="57.79" speed="12.24"/>
            </lane>
            <lane id="R01_1"/>
        </edge>
        <edge id="R34">
            <lane id="R34_0"/>
            <lane id="R34_1">
                <vehicle id="F1_0" pos="62.17" speed="13.53"/>
            </lane>
        </edge>
    </timestep>
    <timestep time="8.00">
        <edge id="R01">
            <lane id="R01_0">
                <vehicle id="F0_0" pos="71.90" speed="14.11"/>
            </lane>
            <lane id="R01_1"/>
        </edge>
        <edge id="R34">
            <lane id="R34_0"/>
            <lane id="R34_1">
                <vehicle id="F1_0" pos="72.19" speed="10.02"/>
            </lane>
        </edge>
    </timestep>
    <timestep time="9.00">
        <edge id=":n1_7">
            <lane id=":n1_7_0">
                <vehicle id="F0_0" pos="1.82" speed="15.31"/>
            </lane>
        </edge>
        <edge id="R34">
            <lane id="R34_0"/>
            <lane id="R34_1">
                <vehicle id="F1_0" pos="79.42" speed="7.22"/>
            </lane>
        </edge>
    </timestep>
    <timestep time="10.00">
        <edge id="D14">
            <lane id="D14_0"/>
            <lane id="D14_1">
                <vehicle id="F0_0" pos="13.49" speed="16.68"/>
            </lane>
        </edge>
        <edge id="R34">
            <lane id="R34_0"/>
            <lane id="R34_1">
                <vehicle id="F1_0" pos="83.13" speed="3.71"/>
            </lane>
        </edge>
    </timestep>
    <timestep time="11.00">
        <edge id=":n4_9">
            <lane id=":n4_9_0">
                <vehicle id="F1_0" pos="3.30" speed="5.57"/>
            </lane>
        </edge>
        <edge id="D14">
            <lane id="D14_0"/>
            <lane id="D14_1">
                <vehicle id="F0_0" pos="32.11" speed="18.61"/>
            </lane>
        </edge>
    </timestep>
    <timestep time="12.00">
        <edge id=":n4_9">
            <lane id=":n4_9_0">
                <vehicle id="F1_0" pos="10.53" speed="7.23"/>
            </lane>
        </edge>
        <edge id="D14">
            <lane id="D14_0"/>
            <lane id="D14_1">
                <vehicle id="F0_0" pos="49.36" speed="17.25"/>
            </lane>
        </edge>
    </timestep>
    <timestep time="13.00">
        <edge id="D14">
            <lane id="D14_0"/>
            <lane id="D14_1">
                <vehicle id="F0_0" pos="62.08" speed="12.71"/>
            </lane>
        </edge>
        <edge id="U41">
            <lane id="U41_0"/>
            <lane id="U41_1">
                <vehicle id="F1_0" pos="3.53" speed="8.64"/>
            </lane>
        </edge>
    </timestep>
    <timestep time="14.00">
        <edge id="D14">
            <lane id="D14_0"/>
            <lane id="D14_1">
                <vehicle id="F0_0" pos="71.86" speed="9.78"/>
            </lane>
        </edge>
        <edge id="U41">
            <lane id="U41_0"/>
            <lane id="U41_1">
                <vehicle id="F1_0" pos="13.47" speed="9.94"/>
            </lane>
        </edge>
    </timestep>
    <timestep time="15.00">
        <edge id="D14">
            <lane id="D14_0"/>
            <lane id="D14_1">
                <vehicle id="F0_0" pos="78.42" speed="6.56"/>
            </lane>
        </edge>
        <edge id="U41">
            <lane id="U41_0">
                <vehicle id="F1_0" pos="25.06" speed="11.59"/>
            </lane>
            <lane id="U41_1"/>
        </edge>
    </timestep>
    <timestep time="16.00">
        <edge id="D14">
            <lane id="D14_0"/>
            <lane id="D14_1">
                <vehicle id="F0_0" pos="81.89" speed="3.47"/>
            </lane>
        </edge>
        <edge id="U41">
            <lane id="U41_0">
                <vehicle id="F1_0" pos="38.78" speed="13.72"/>
            </lane>
            <lane id="U41_1"/>
        </edge>
    </timestep>
    <timestep time="17.00">
        <edge id=":n4_1">
            <lane id=":n4_1_0">
                <vehicle id="F0_0" pos="3.74" speed="5.75"/>
            </lane>
        </edge>
        <edge id="U41">
            <lane id="U41_0">
                <vehicle id="F1_0" pos="53.83" speed="15.05"/>
            </lane>
            <lane id="U41_1"/>
        </edge>
    </timestep>
    <timestep time="18.00">
        <edge id=":n4_1">
            <lane id=":n4_1_0">
                <vehicle id="F0_0" pos="11.85" speed="8.10"/>
            </lane>
        </edge>
        <edge id="U41">
            <lane id="U41_0">
                <vehicle id="F1_0" pos="65.36" speed="11.53"/>
            </lane>
            <lane id="U41_1"/>
        </edge>
    </timestep>
    <timestep time="19.00">
        <edge id="R45">
            <lane id="R45_0"/>
            <lane id="R45_1">
                <vehicle id="F0_0" pos="6.24" speed="10.04"/>
            </lane>
        </edge>
        <edge id="U41">
            <lane id="U41_0">
                <vehicle id="F1_0" pos="73.77" speed="8.40"/>
            </lane>
            <lane id="U41_1"/>
        </edge>
    </timestep>
    <timestep time="20.00">
        <edge id="R45">
            <lane id="R45_0"/>
            <lane id="R45_1">
                <vehicle id="F0_0" pos="18.37" speed="12.12"/>
            </lane>
        </edge>
        <edge id="U41">
            <lane id="U41_0">
                <vehicle id="F1_0" pos="79.68" speed="5.91"/>
            </lane>
            <lane id="U41_1"/>
        </edge>
    </timestep>
    <timestep time="21.00">
        <edge id=":n1_4">
            <lane id=":n1_4_0">
                <vehicle id="F1_0" pos="2.96" speed="7.18"/>
            </lane>
        </edge>
        <edge id="R45">
            <lane id="R45_0"/>
            <lane id="R45_1">
                <vehicle id="F0_0" pos="32.22" speed="13.85"/>
            </lane>
        </edge>
    </timestep>
    <timestep time="22.00">
        <edge id="R12">
            <lane id="R12_0">
                <vehicle id="F1_0" pos="7.22" speed="9.27"/>
            </lane>
            <lane id="R12_1"/>
        </edge>
        <edge id="R45">
            <lane id="R45_0"/>
            <lane id="R45_1">
                <vehicle id="F0_0" pos="47.88" speed="15.67"/>
            </lane>
        </edge>
    </timestep>
    <timestep time="23.00">
        <edge id="R12">
            <lane id="R12_0">
                <vehicle id="F1_0" pos="18.56" speed="11.34"/>
            </lane>
            <lane id="R12_1"/>
        </edge>
        <edge id="R45">
            <lane id="R45_0"/>
            <lane id="R45_1">
                <vehicle id="F0_0" pos="65.02" speed="17.13"/>
            </lane>
        </edge>
    </timestep>
    <timestep time="24.00">
        <edge id="R12">
            <lane id="R12_0">
                <vehicle id="F1_0" pos="31.83" speed="13.26"/>
            </lane>
            <lane id="R12_1"/>
        </edge>
        <edge id="R45">
            <lane id="R45_0"/>
            <lane id="R45_1">
                <vehicle id="F0_0" pos="83.34" speed="18.33"/>
            </lane>
        </edge>
    </timestep>
    <timestep time="25.00">
        <edge id="R12">
            <lane id="R12_0">
                <vehicle id="F1_0" pos="47.11" speed="15.28"/>
            </lane>
            <lane id="R12_1"/>
        </edge>
        <edge id="U52">
            <lane id="U52_0"/>
            <lane id="U52_1">
                <vehicle id="F0_0" pos="4.35" speed="19.63"/>
            </lane>
        </edge>
    </timestep>
    <timestep time="26.00">
        <edge id="R12">
            <lane id="R12_0">
                <vehicle id="F1_0" pos="63.84" speed="16.73"/>
            </lane>
            <lane id="R12_1"/>
        </edge>
        <edge id="U52">
            <lane id="U52_0"/>
            <lane id="U52_1">
                <vehicle id="F0_0" pos="25.21" speed="20.86"/>
            </lane>
        </edge>
    </timestep>
    <timestep time="27.00">
        <edge id="R12">
            <lane id="R12_0">
                <vehicle id="F1_0" pos="81.66" speed="17.82"/>
            </lane>
            <lane id="R12_1"/>
        </edge>
        <edge id="U52">
            <lane id="U52_0"/>
            <lane id="U52_1">
                <vehicle id="F0_0" pos="47.28" speed="22.07"/>
            </lane>
        </edge>
    </timestep>
    <timestep time="28.00">
        <edge id="D25">
            <lane id="D25_0">
                <vehicle id="F1_0" pos="13.15" speed="19.47"/>
            </lane>
            <lane id="D25_1"/>
        </edge>
        <edge id="U52">
            <lane id="U52_0"/>
            <lane id="U52_1">
                <vehicle id="F0_0" pos="70.32" speed="23.03"/>
            </lane>
        </edge>
    </timestep>
    <timestep time="29.00">
        <edge id=":n2_1">
            <lane id=":n2_1_0">
                <vehicle id="F0_0" pos="7.70" speed="24.29"/>
            </lane>
        </edge>
        <edge id="D25">
            <lane id="D25_0"/>
            <lane id="D25_1">
                <vehicle id="F1_0" pos="34.05" speed="20.90"/>
            </lane>
        </edge>
    </timestep>
    <timestep time="30.00">
        <edge id="D25">
            <lane id="D25_0"/>
            <lane id="D25_1">
                <vehicle id="F1_0" pos="56.62" speed="22.58"/>
            </lane>
        </edge>
        <edge id="L21">
            <lane id="L21_0"/>
            <lane id="L21_1">
                <vehicle id="F0_0" pos="18.13" speed="23.65"/>
            </lane>
        </edge>
    </timestep>
    <timestep time="31.00">
        <edge id="D25">
            <lane id="D25_0"/>
            <lane id="D25_1">
                <vehicle id="F1_0" pos="80.42" speed="23.79"/>
            </lane>
        </edge>
        <edge id="L21">
            <lane id="L21_0"/>
            <lane id="L21_1">
                <vehicle id="F0_0" pos="38.48" speed="20.34"/>
            </lane>
        </edge>
    </timestep>
    <timestep time="32.00">
        <edge id="L21">
            <lane id="L21_0"/>
            <lane id="L21_1">
                <vehicle id="F0_0" pos="54.86" speed="16.39"/>
            </lane>
        </edge>
        <edge id="L54">
            <lane id="L54_0"/>
            <lane id="L54_1">
                <vehicle id="F1_0" pos="11.11" speed="25.49"/>
            </lane>
        </edge>
    </timestep>
    <timestep time="33.00">
        <edge id="L21">
            <lane id="L21_0"/>
            <lane id="L21_1">
                <vehicle id="F0_0" pos="66.96" speed="12.10"/>
            </lane>
        </edge>
        <edge id="L54">
            <lane id="L54_0"/>
            <lane id="L54_1">
                <vehicle id="F1_0" pos="38.02" speed="26.92"/>
            </lane>
        </edge>
    </timestep>
    <timestep time="34.00">
        <edge id="L21">
            <lane id="L21_0"/>
            <lane id="L21_1">
                <vehicle id="F0_0" pos="76.03" speed="9.07"/>
            </lane>
        </edge>
        <edge id="L54">
            <lane id="L54_0"/>
            <lane id="L54_1">
                <vehicle id="F1_0" pos="65.83" speed="27.80"/>
            </lane>
        </edge>
    </timestep>
    <timestep time="35.00">
        <edge id=":n4_5">
            <lane id=":n4_5_0">
                <vehicle id="F1_0" pos="9.67" speed="29.24"/>
            </lane>
        </edge>
        <edge id="L21">
            <lane id="L21_0"/>
            <lane id="L21_1">
                <vehicle id="F0_0" pos="80.57" speed="4.54"/>
            </lane>
        </edge>
    </timestep>
    <timestep time="36.00">
        <edge id="L21">
            <lane id="L21_0"/>
            <lane id="L21_1">
                <vehicle id="F0_0" pos="83.67" speed="3.09"/>
            </lane>
        </edge>
        <edge id="L43">
            <lane id="L43_0"/>
            <lane id="L43_1">
                <vehicle id="F1_0" pos="24.07" speed="30.50"/>
            </lane>
        </edge>
    </timestep>
    <timestep time="37.00">
        <edge id=":n1_2">
            <lane id=":n1_2_0">
                <vehicle id="F0_0" pos="3.17" speed="4.90"/>
            </lane>
        </edge>
        <edge id="L43">
            <lane id="L43_0"/>
            <lane id="L43_1">
                <vehicle id="F1_0" pos="55.98" speed="31.91"/>
            </lane>
        </edge>
    </timestep>
    <timestep time="38.00">
        <edge id=":n1_2">
            <lane id=":n1_2_0">
                <vehicle id="F0_0" pos="10.27" speed="7.11"/>
            </lane>
        </edge>
        <edge id="L43">
            <lane id="L43_0"/>
            <lane id="L43_1">
                <vehicle id="F1_0" pos="85.06" speed="29.08"/>
            </lane>
        </edge>
    </timestep>
    <timestep time="39.00">
        <edge id="D14">
            <lane id="D14_0"/>
            <lane id="D14_1">
                <vehicle id="F0_0" pos="3.99" speed="9.35"/>
            </lane>
        </edge>
        <edge id="U30">
            <lane id="U30_0"/>
            <lane id="U30_1">
                <vehicle id="F1_0" pos="16.83" speed="25.07"/>
            </lane>
        </edge>
    </timestep>
    <timestep time="40.00">
        <edge id="D14">
            <lane id="D14_0"/>
            <lane id="D14_1">
                <vehicle id="F0_0" pos="14.81" speed="10.82"/>
            </lane>
        </edge>
        <edge id="R01">
            <lane id="R01_0">
                <vehicle id="F0_1" pos="7.60" speed="0.00"/>
            </lane>
            <lane id="R01_1"/>
        </edge>
        <edge id="R34">
            <lane id="R34_0">
                <vehicle id="F1_1" pos="7.60" speed="0.00"/>
            </lane>
            <lane id="R34_1"/>
        </edge>
        <edge id="U30">
            <lane id="U30_0"/>
            <lane id="U30_1">
                <vehicle id="F1_0" pos="37.52" speed="20.69"/>
            </lane>
        </edge>
    </timestep>
    <timestep time="41.00">
        <edge id="D14">
            <lane id="D14_0"/>
            <lane id="D14_1">
                <vehicle id="F0_0" pos="27.11" speed="12.30"/>
            </lane>
        </edge>
        <edge id="R01">
            <lane id="R01_0">
                <vehicle id="F0_1" pos="9.84" speed="2.24"/>
            </lane>
            <lane id="R01_1"/>
        </edge>
        <edge id="R34">
            <lane id="R34_0">
                <vehicle id="F1_1" pos="9.93" speed="2.33"/>
            </lane>
            <lane id="R34_1"/>
        </edge>
        <edge id="U30">
            <lane id="U30_0"/>
            <lane id="U30_1">
                <vehicle id="F1_0" pos="54.16" speed="16.64"/>
            </lane>
        </edge>
    </timestep>
    <timestep time="42.00">
        <edge id="D14">
            <lane id="D14_0"/>
            <lane id="D14_1">
                <vehicle id="F0_0" pos="41.03" speed="13.92"/>
            </lane>
        </edge>
        <edge id="R01">
            <lane id="R01_0">
                <vehicle id="F0_1" pos="13.85" speed="4.01"/>
            </lane>
            <lane id="R01_1"/>
        </edge>
        <edge id="R34">
            <lane id="R34_0">
                <vehicle id="F1_1" pos="14.31" speed="4.38"/>
            </lane>
            <lane id="R34_1"/>
        </edge>
        <edge id="U30">
            <lane id="U30_0"/>
            <lane id="U30_1">
                <vehicle id="F1_0" pos="66.53" speed="12.38"/>
            </lane>
        </edge>
    </timestep>
    <timestep time="43.00">
        <edge id="D14">
            <lane id="D14_0"/>
            <lane id="D14_1">
                <vehicle id="F0_0" pos="56.31" speed="15.28"/>
            </lane>
        </edge>
        <edge id="R01">
            <lane id="R01_0">
                <vehicle id="F0_1" pos="19.61" speed="5.77"/>
            </lane>
            <lane id="R01_1"/>
        </edge>
        <edge id="R34">
            <lane id="R34_0">
                <vehicle id="F1_1" pos="20.63" speed="6.32"/>
            </lane>
            <lane id="R34_1"/>
        </edge>
        <edge id="U30">
            <lane id="U30_0"/>
            <lane id="U30_1">
                <vehicle id="F1_0" pos="75.21" speed="8.67"/>
            </lane>
        </edge>
    </timestep>
    <timestep time="44.00">
        <edge id="D14">
            <lane id="D14_0"/>
            <lane id="D14_1">
                <vehicle id="F0_0" pos="68.09" speed="11.77"/>
            </lane>
        </edge>
        <edge id="R01">
            <lane id="R01_0">
                <vehicle id="F0_1" pos="27.74" speed="8.13"/>
            </lane>
            <lane id="R01_1"/>
        </edge>
        <edge id="R34">
            <lane id="R34_0"/>
            <lane id="R34_1">
                <vehicle id="F1_1" pos="28.98" speed="8.34"/>
            </lane>
        </edge>
        <edge id="U30">
            <lane id="U30_0"/>
            <lane id="U30_1">
                <vehicle id="F1_0" pos="80.88" speed="5.67"/>
            </lane>
        </edge>
    </timestep>
    <timestep time="45.00">
        <edge id="D14">
            <lane id="D14_0"/>
            <lane id="D14_1">
                <vehicle id="F0_0" pos="75.77" speed="7.68"/>
            </lane>
        </edge>
        <edge id="R01">
            <lane id="R01_0">
                <vehicle id="F0_1" pos="37.14" speed="9.40"/>
            </lane>
            <lane id="R01_1"/>
        </edge>
        <edge id="R34">
            <lane id="R34_0"/>
            <lane id="R34_1">
                <vehicle id="F1_1" pos="38.92" speed="9.94"/>
            </lane>
        </edge>
        <edge id="U30">
            <lane id="U30_0"/>
            <lane id="U30_1">
                <vehicle id="F1_0" pos="84.49" speed="3.61"/>
            </lane>
        </edge>
    </timestep>
    <timestep time="46.00">
        <edge id=":n0_5">
            <lane id=":n0_5_0">
                <vehicle id="F1_0" pos="2.98" speed="5.39"/>
            </lane>
        </edge>
        <edge id="D14">
            <lane id="D14_0"/>
            <lane id="D14_1">
                <vehicle id="F0_0" pos="79.88" speed="4.11"/>
            </lane>
        </edge>
        <edge id="R01">
            <lane id="R01_0">
                <vehicle id="F0_1" pos="48.30" speed="11.16"/>
            </lane>
            <lane id="R01_1"/>
        </edge>
        <edge id="R34">
            <lane id="R34_0"/>
            <lane id="R34_1">
                <vehicle id="F1_1" pos="50.34" speed="11.41"/>
            </lane>
        </edge>
    </timestep>
    <timestep time="47.00">
        <edge id="D03">
            <lane id="D03_0"/>
            <lane id="D03_1">
                <vehicle id="F1_0" pos="5.55" speed="7.40"/>
            </lane>
        </edge>
        <edge id="D14">
            <lane id="D14_0"/>
            <lane id="D14_1">
                <vehicle id="F0_0" pos="82.38" speed="2.50"/>
            </lane>
        </edge>
        <edge id="R01">
            <lane id="R01_0">
                <vehicle id="F0_1" pos="61.34" speed="13.03"/>
            </lane>
            <lane id="R01_1"/>
        </edge>
        <edge id="R34">
            <lane id="R34_0"/>
            <lane id="R34_1">
                <vehicle id="F1_1" pos="62.91" speed="12.57"/>
            </lane>
        </edge>
    </timestep>
    <timestep time="48.00">
        <edge id="D03">
            <lane id="D03_0"/>
            <lane id="D03_1">
                <vehicle id="F1_0" pos="14.49" speed="8.94"/>
            </lane>
        </edge>
        <edge id="D14">
            <lane id="D14_0"/>
            <lane id="D14_1">
                <vehicle id="F0_0" pos="83.27" speed="0.89"/>
            </lane>
        </edge>
        <edge id="R01">
            <lane id="R01_0">
                <vehicle id="F0_1" pos="76.01" speed="14.67"/>
            </lane>
            <lane id="R01_1"/>
        </edge>
        <edge id="R34">
            <lane id="R34_0"/>
            <lane id="R34_1">
                <vehicle id="F1_1" pos="73.22" speed="10.31"/>
            </lane>
        </edge>
    </timestep>
    <timestep time="49.00">
        <edge id="D03">
            <lane id="D03_0"/>
            <lane id="D03_1">
                <vehicle id="F1_0" pos="24.85" speed="10.35"/>
            </lane>
        </edge>
        <edge id="D14">
            <lane id="D14_0"/>
            <lane id="D14_1">
                <vehicle id="F0_1" pos="1.64" speed="16.02"/>
                <vehicle id="F0_0" pos="83.82" speed="0.56"/>
            </lane>
        </edge>
        <edge id="R34">
            <lane id="R34_0"/>
            <lane id="R34_1">
                <vehicle id="F1_1" pos="79.78" speed="6.57"/>
            </lane>
        </edge>
    </timestep>
    <timestep time="50.00">
        <edge id="D03">
            <lane id="D03_0"/>
            <lane id="D03_1">
                <vehicle id="F1_0" pos="36.65" speed="11.81"/>
            </lane>
        </edge>
        <edge id="D14">
            <lane id="D14_0"/>
            <lane id="D14_1">
                <vehicle id="F0_1" pos="18.81" speed="17.18"/>
                <vehicle id="F0_0" pos="83.89" speed="0.06"/>
            </lane>
        </edge>
        <edge id="R34">
            <lane id="R34_0"/>
            <lane id="R34_1">
                <vehicle id="F1_1" pos="83.52" speed="3.74"/>
            </lane>
        </edge>
    </timestep>
    <timestep time="51.00">
        <edge id=":n4_9">
            <lane id=":n4_9_0">
                <vehicle id="F1_1" pos="4.28" speed="6.15"/>
            </lane>
        </edge>
        <edge id="D03">
            <lane id="D03_0"/>
            <lane id="D03_1">
                <vehicle id="F1_0" pos="50.12" speed="13.47"/>
            </lane>
        </edge>
        <edge id="D14">
            <lane id="D14_0"/>
            <lane id="D14_1">
                <vehicle id="F0_1" pos="37.14" speed="18.33"/>
                <vehicle id="F0_0" pos="83.90" speed="0.01"/>
            </lane>
        </edge>
    </timestep>
    <timestep time="52.00">
        <edge id=":n4_9">
            <lane id=":n4_9_0">
                <vehicle id="F1_1" pos="11.77" speed="7.49"/>
            </lane>
        </edge>
        <edge id="D03">
            <lane id="D03_0"/>
            <lane id="D03_1">
                <vehicle id="F1_0" pos="64.70" speed="14.58"/>
            </lane>
        </edge>
        <edge id="D14">
            <lane id="D14_0"/>
            <lane id="D14_1">
                <vehicle id="F0_1" pos="51.10" speed="13.96"/>
                <vehicle id="F0_0" pos="83.90" speed="0.00"/>
            </lane>
        </edge>
    </timestep>
    <timestep time="53.00">
        <edge id="D03">
            <lane id="D03_0"/>
            <lane id="D03_1">
                <vehicle id="F1_0" pos="81.00" speed="16.30"/>
            </lane>
        </edge>
        <edge id="D14">
            <lane id="D14_0"/>
            <lane id="D14_1">
                <vehicle id="F0_1" pos="61.62" speed="10.52"/>
                <vehicle id="F0_0" pos="83.90" speed="0.00"/>
            </lane>
        </edge>
        <edge id="U41">
            <lane id="U41_0"/>
            <lane id="U41_1">
                <vehicle id="F1_1" pos="5.28" speed="9.15"/>
            </lane>
        </edge>
    </timestep>
    <timestep time="54.00">
        <edge id=":n3_1">
            <lane id=":n3_1_0">
                <vehicle id="F1_0" pos="12.03" speed="17.93"/>
            </lane>
        </edge>
        <edge id=":n4_1">
            <lane id=":n4_1_0">
                <vehicle id="F0_0" pos="1.85" speed="1.86"/>
            </lane>
        </edge>
        <edge id="D14">
            <lane id="D14_0"/>
            <lane id="D14_1">
                <vehicle id="F0_1" pos="68.72" speed="7.09"/>
            </lane>
        </edge>
        <edge id="U41">
            <lane id="U41_0"/>
            <lane id="U41_1">
                <vehicle id="F1_1" pos="16.39" speed="11.11"/>
            </lane>
        </edge>
    </timestep>
    <timestep time="55.00">
        <edge id=":n4_1">
            <lane id=":n4_1_0">
                <vehicle id="F0_0" pos="5.46" speed="3.61"/>
            </lane>
        </edge>
        <edge id="D14">
            <lane id="D14_0"/>
            <lane id="D14_1">
                <vehicle id="F0_1" pos="74.39" speed="5.68"/>
            </lane>
        </edge>
        <edge id="R34">
            <lane id="R34_0"/>
            <lane id="R34_1">
                <vehicle id="F1_0" pos="17.87" speed="19.06"/>
            </lane>
        </edge>
        <edge id="U41">
            <lane id="U41_0"/>
            <lane id="U41_1">
                <vehicle id="F1_1" pos="29.09" speed="12.70"/>
            </lane>
        </edge>
    </timestep>
    <timestep time="56.00">
        <edge id=":n4_1">
            <lane id=":n4_1_0">
                <vehicle id="F0_0" pos="11.52" speed="6.06"/>
            </lane>
        </edge>
        <edge id="D14">
            <lane id="D14_0"/>
            <lane id="D14_1">
                <vehicle id="F0_1" pos="78.58" speed="4.19"/>
            </lane>
        </edge>
        <edge id="R34">
            <lane id="R34_0"/>
            <lane id="R34_1">
                <vehicle id="F1_0" pos="37.68" speed="19.81"/>
            </lane>
        </edge>
        <edge id="U41">
            <lane id="U41_0"/>
            <lane id="U41_1">
                <vehicle id="F1_1" pos="42.94" speed="13.86"/>
            </lane>
        </edge>
    </timestep>
    <timestep time="57.00">
        <edge id="D14">
            <lane id="D14_0"/>
            <lane id="D14_1">
                <vehicle id="F0_1" pos="81.74" speed="3.16"/>