<?xml version="1.0"?>

<!-- generated on 28-03-2019 22:42:41 by SUMO gui Version 0.12.3
<?xml version="1.0" encoding="iso-8859-1"?>

<configuration xmlns:xsi="http://www.w3.org/2001/XMLSchema-instance" xsi:noNamespaceSchemaLocation="http://sumo.sf.net/xsd/sumo-gui.exeConfiguration.xsd">

    <input>
        <net-file value="C:\Users\Student\Documents\105map.net.xml"/>
        <route-files value="C:\Users\Student\Documents\105rou.rou.xml"/>
    </input>

    <output>
        <netstate-dump value="C:\Users\Student\Documents\105sumo.sumo.tr"/>
        <emissions-output value="C:\Users\Student\Documents\output-emissions.xml"/>
        <tripinfo-output value="C:\Users\Student\Documents\output-tripinfos.xml"/>
        <vehroute-output value="C:\Users\Student\Documents\output-vehroutes.xml"/>
    </output>

    <time>
        <begin value="0"/>
        <end value="1000"/>
    </time>

    <processing>
        <route-steps value="-1"/>
        <time-to-teleport value="-1"/>
    </processing>

    <report>
        <print-options value="false"/>
    </report>

    <random_number>
        <srand value="23423"/>
    </random_number>

    <gui_only>
        <gui-settings-file value=""/>
    </gui_only>

</configuration>
-->

<routes>
</routes>
