<?xml version="1.0"?>

<!-- generated on 28-03-2019 22:42:41 by SUMO gui Version 0.12.3
<?xml version="1.0" encoding="iso-8859-1"?>

<configuration xmlns:xsi="http://www.w3.org/2001/XMLSchema-instance" xsi:noNamespaceSchemaLocation="http://sumo.sf.net/xsd/sumo-gui.exeConfiguration.xsd">

    <input>
        <net-file value="C:\Users\Student\Documents\105map.net.xml"/>
        <route-files value="C:\Users\Student\Documents\105rou.rou.xml"/>
    </input>

    <output>
        <netstate-dump value="C:\Users\Student\Documents\105sumo.sumo.tr"/>
        <emissions-output value="C:\Users\Student\Documents\output-emissions.xml"/>
        <tripinfo-output value="C:\Users\Student\Documents\output-tripinfos.xml"/>
        <vehroute-output value="C:\Users\Student\Documents\output-vehroutes.xml"/>
    </output>

    <time>
        <begin value="0"/>
        <end value="1000"/>
    </time>

    <processing>
        <route-steps value="-1"/>
        <time-to-teleport value="-1"/>
    </processing>

    <report>
        <print-options value="false"/>
    </report>

    <random_number>
        <srand value="23423"/>
    </random_number>

    <gui_only>
        <gui-settings-file value=""/>
    </gui_only>

</configuration>
-->

<emissions>
    <emission-state time="0.00" loaded="50" emitted="2" running="2" waiting="0" ended="0" meanWaitingTime="0.00" meanTravelTime="-1.00" duration="0" />
    <emission-state time="1.00" loaded="50" emitted="2" running="2" waiting="0" ended="0" meanWaitingTime="0.00" meanTravelTime="-1.00" duration="1" />
    <emission-state time="2.00" loaded="50" emitted="2" running="2" waiting="0" ended="0" meanWaitingTime="0.00" meanTravelTime="-1.00" duration="0" />
    <emission-state time="3.00" loaded="50" emitted="2" running="2" waiting="0" ended="0" meanWaitingTime="0.00" meanTravelTime="-1.00" duration="0" />
    <emission-state time="4.00" loaded="50" emitted="2" running="2" waiting="0" ended="0" meanWaitingTime="0.00" meanTravelTime="-1.00" duration="0" />
    <emission-state time="5.00" loaded="50" emitted="2" running="2" waiting="0" ended="0" meanWaitingTime="0.00" meanTravelTime="-1.00" duration="0" />
    <emission-state time="6.00" loaded="50" emitted="2" running="2" waiting="0" ended="0" meanWaitingTime="0.00" meanTravelTime="-1.00" duration="0" />
    <emission-state time="7.00" loaded="50" emitted="2" running="2" waiting="0" ended="0" meanWaitingTime="0.00" meanTravelTime="-1.00" duration="0" />
    <emission-state time="8.00" loaded="50" emitted="2" running="2" waiting="0" ended="0" meanWaitingTime="0.00" meanTravelTime="-1.00" duration="0" />
    <emission-state time="9.00" loaded="50" emitted="2" running="2" waiting="0" ended="0" meanWaitingTime="0.00" meanTravelTime="-1.00" duration="0" />
    <emission-state time="10.00" loaded="50" emitted="2" running="2" waiting="0" ended="0" meanWaitingTime="0.00" meanTravelTime="-1.00" duration="0" />
    <emission-state time="11.00" loaded="50" emitted="2" running="2" waiting="0" ended="0" meanWaitingTime="0.00" meanTravelTime="-1.00" duration="0" />
    <emission-state time="12.00" loaded="50" emitted="2" running="2" waiting="0" ended="0" meanWaitingTime="0.00" meanTravelTime="-1.00" duration="0" />
    <emission-state time="13.00" loaded="50" emitted="2" running="2" waiting="0" ended="0" meanWaitingTime="0.00" meanTravelTime="-1.00" duration="0" />
    <emission-state time="14.00" loaded="50" emitted="2" running="2" waiting="0" ended="0" meanWaitingTime="0.00" meanTravelTime="-1.00" duration="0" />
    <emission-state time="15.00" loaded="50" emitted="2" running="2" waiting="0" ended="0" meanWaitingTime="0.00" meanTravelTime="-1.00" duration="0" />
    <emission-state time="16.00" loaded="50" emitted="2" running="2" waiting="0" ended="0" meanWaitingTime="0.00" meanTravelTime="-1.00" duration="0" />
    <emission-state time="17.00" loaded="50" emitted="2" running="2" waiting="0" ended="0" meanWaitingTime="0.00" meanTravelTime="-1.00" duration="1" />
    <emission-state time="18.00" loaded="50" emitted="2" running="2" waiting="0" ended="0" meanWaitingTime="0.00" meanTravelTime="-1.00" duration="0" />
    <emission-state time="19.00" loaded="50" emitted="2" running="2" waiting="0" ended="0" meanWaitingTime="0.00" meanTravelTime="-1.00" duration="0" />
    <emission-state time="20.00" loaded="50" emitted="2" running="2" waiting="0" ended="0" meanWaitingTime="0.00" meanTravelTime="-1.00" duration="0" />
    <emission-state time="21.00" loaded="50" emitted="2" running="2" waiting="0" ended="0" meanWaitingTime="0.00" meanTravelTime="-1.00" duration="1" />
    <emission-state time="22.00" loaded="50" emitted="2" running="2" waiting="0" ended="0" meanWaitingTime="0.00" meanTravelTime="-1.00" duration="0" />
    <emission-state time="23.00" loaded="50" emitted="2" running="2" waiting="0" ended="0" meanWaitingTime="0.00" meanTravelTime="-1.00" duration="0" />
    <emission-state time="24.00" loaded="50" emitted="2" running="2" waiting="0" ended="0" meanWaitingTime="0.00" meanTravelTime="-1.00" duration="0" />
    <emission-state time="25.00" loaded="50" emitted="2" running="2" waiting="0" ended="0" meanWaitingTime="0.00" meanTravelTime="-1.00" duration="1" />
    <emission-state time="26.00" loaded="50" emitted="2" running="2" waiting="0" ended="0" meanWaitingTime="0.00" meanTravelTime="-1.00" duration="0" />
    <emission-state time="27.00" loaded="50" emitted="2" running="2" waiting="0" ended="0" meanWaitingTime="0.00" meanTravelTime="-1.00" duration="1" />
    <emission-state time="28.00" loaded="50" emitted="2" running="2" waiting="0" ended="0" meanWaitingTime="0.00" meanTravelTime="-1.00" duration="0" />
    <emission-state time="29.00" loaded="50" emitted="2" running="2" waiting="0" ended="0" meanWaitingTime="0.00" meanTravelTime="-1.00" duration="1" />
    <emission-state time="30.00" loaded="50" emitted="2" running="2" waiting="0" ended="0" meanWaitingTime="0.00" meanTravelTime="-1.00" duration="0" />
    <emission-state time="31.00" loaded="50" emitted="2" running="2" waiting="0" ended="0" meanWaitingTime="0.00" meanTravelTime="-1.00" duration="0" />
    <emission-state time="32.00" loaded="50" emitted="2" running="2" waiting="0" ended="0" meanWaitingTime="0.00" meanTravelTime="-1.00" duration="0" />
    <emission-state time="33.00" loaded="50" emitted="2" running="2" waiting="0" ended="0" meanWaitingTime="0.00" meanTravelTime="-1.00" duration="0" />
    <emission-state time="34.00" loaded="50" emitted="2" running="2" waiting="0" ended="0" meanWaitingTime="0.00" meanTravelTime="-1.00" duration="0" />
    <emission-state time="35.00" loaded="50" emitted="2" running="2" waiting="0" ended="0" meanWaitingTime="0.00" meanTravelTime="-1.00" duration="0" />
    <emission-state time="36.00" loaded="50" emitted="2" running="2" waiting="0" ended="0" meanWaitingTime="0.00" meanTravelTime="-1.00" duration="0" />
    <emission-state time="37.00" loaded="50" emitted="2" running="2" waiting="0" ended="0" meanWaitingTime="0.00" meanTravelTime="-1.00" duration="0" />
    <emission-state time="38.00" loaded="50" emitted="2" running="2" waiting="0" ended="0" meanWaitingTime="0.00" meanTravelTime="-1.00" duration="1" />
    <emission-state time="39.00" loaded="50" emitted="2" running="2" waiting="0" ended="0" meanWaitingTime="0.00" meanTravelTime="-1.00" duration="0" />
    <emission-state time="40.00" loaded="50" emitted="4" running="4" waiting="0" ended="0" meanWaitingTime="0.00" meanTravelTime="-1.00" duration="0" />
    <emission-state time="41.00" loaded="50" emitted="4" running="4" waiting="0" ended="0" meanWaitingTime="0.00" meanTravelTime="-1.00" duration="0" />
    <emission-state time="42.00" loaded="50" emitted="4" running="4" waiting="0" ended="0" meanWaitingTime="0.00" meanTravelTime="-1.00" duration="1" />
    <emission-state time="43.00" loaded="50" emitted="4" running="4" waiting="0" ended="0" meanWaitingTime="0.00" meanTravelTime="-1.00" duration="0" />
    <emission-state time="44.00" loaded="50" emitted="4" running="4" waiting="0" ended="0" meanWaitingTime="0.00" meanTravelTime="-1.00" duration="1" />
    <emission-state time="45.00" loaded="50" emitted="4" running="4" waiting="0" ended="0" meanWaitingTime="0.00" meanTravelTime="-1.00" duration="0" />
    <emission-state time="46.00" loaded="50" emitted="4" running="4" waiting="0" ended="0" meanWaitingTime="0.00" meanTravelTime="-1.00" duration="1" />
    <emission-state time="47.00" loaded="50" emitted="4" running="4" waiting="0" ended="0" meanWaitingTime="0.00" meanTravelTime="-1.00" duration="0" />
    <emission-state time="48.00" loaded="50" emitted="4" running="4" waiting="0" ended="0" meanWaitingTime="0.00" meanTravelTime="-1.00" duration="1" />
    <emission-state time="49.00" loaded="50" emitted="4" running="4" waiting="0" ended="0" meanWaitingTime="0.00" meanTravelTime="-1.00" duration="0" />
    <emission-state time="50.00" loaded="50" emitted="4" running="4" waiting="0" ended="0" meanWaitingTime="0.00" meanTravelTime="-1.00" duration="1" />
    <emission-state time="51.00" loaded="50" emitted="4" running="4" waiting="0" ended="0" meanWaitingTime="0.00" meanTravelTime="-1.00" duration="0" />
    <emission-state time="52.00" loaded="50" emitted="4" running="4" waiting="0" ended="0" meanWaitingTime="0.00" meanTravelTime="-1.00" duration="1" />
    <emission-state time="53.00" loaded="50" emitted="4" running="4" waiting="0" ended="0" meanWaitingTime="0.00" meanTravelTime="-1.00" duration="0" />
    <emission-state time="54.00" loaded="50" emitted="4" running="4" waiting="0" ended="0" meanWaitingTime="0.00" meanTravelTime="-1.00" duration="1" />
    <emission-state time="55.00" loaded="50" emitted="4" running="4" waiting="0" ended="0" meanWaitingTime="0.00" meanTravelTime="-1.00" duration="0" />
    <emission-state time="56.00" loaded="50" emitted="4" running="4" waiting="0" ended="0" meanWaitingTime="0.00" meanTravelTime="-1.00" duration="1" />
    <emission-state time="57.00" loaded="50" emitted="4" running="4" waiting="0" ended="0" meanWaitingTime="0.00" meanTravelTime="-1.00" duration="0" />
    <emission-state time="58.00" loaded="50" emitted="4" running="4" waiting="0" ended="0" meanWaitingTime="0.00" meanTravelTime="-1.00" duration="1" />
    <emission-state time="59.00" loaded="50" emitted="4" running="4" waiting="0" ended="0" meanWaitingTime="0.00" meanTravelTime="-1.00" duration="0" />
    <emission-state time="60.00" loaded="50" emitted="4" running="4" waiting="0" ended="0" meanWaitingTime="0.00" meanTravelTime="-1.00" duration="1" />
    <emission-state time="61.00" loaded="50" emitted="4" running="4" waiting="0" ended="0" meanWaitingTime="0.00" meanTravelTime="-1.00" duration="0" />
    <emission-state time="62.00" loaded="50" emitted="4" running="4" waiting="0" ended="0" meanWaitingTime="0.00" meanTravelTime="-1.00" duration="1" />
    <emission-state time="63.00" loaded="50" emitted="4" running="4" waiting="0" ended="0" meanWaitingTime="0.00" meanTravelTime="-1.00" duration="0" />
    <emission-state time="64.00" loaded="50" emitted="4" running="4" waiting="0" ended="0" meanWaitingTime="0.00" meanTravelTime="-1.00" duration="1" />
    <emission-state time="65.00" loaded="50" emitted="4" running="4" waiting="0" ended="0" meanWaitingTime="0.00" meanTravelTime="-1.00" duration="0" />
    <emission-state time="66.00" loaded="50" emitted="4" running="4" waiting="0" ended="0" meanWaitingTime="0.00" meanTravelTime="-1.00" duration="1" />
    <emission-state time="67.00" loaded="50" emitted="4" running="4" waiting="0" ended="0" meanWaitingTime="0.00" meanTravelTime="-1.00" duration="0" />
    <emission-state time="68.00" loaded="50" emitted="4" running="4" waiting="0" ended="0" meanWaitingTime="0.00" meanTravelTime="-1.00" duration="1" />
    <emission-state time="69.00" loaded="50" emitted="4" running="4" waiting="0" ended="0" meanWaitingTime="0.00" meanTravelTime="-1.00" duration="0" />
    <emission-state time="70.00" loaded="50" emitted="4" running="4" waiting="0" ended="0" meanWaitingTime="0.00" meanTravelTime="-1.00" duration="1" />
    <emission-state time="71.00" loaded="50" emitted="4" running="4" waiting="0" ended="0" meanWaitingTime="0.00" meanTravelTime="-1.00" duration="0" />
    <emission-state time="72.00" loaded="50" emitted="4" running="4" waiting="0" ended="0" meanWaitingTime="0.00" meanTravelTime="-1.00" duration="1" />
    <emission-state time="73.00" loaded="50" emitted="4" running="4" waiting="0" ended="0" meanWaitingTime="0.00" meanTravelTime="-1.00" duration="0" />
    <emission-state time="74.00" loaded="50" emitted="4" running="4" waiting="0" ended="0" meanWaitingTime="0.00" meanTravelTime="-1.00" duration="1" />
    <emission-state time="75.00" loaded="50" emitted="4" running="4" waiting="0" ended="0" meanWaitingTime="0.00" meanTravelTime="-1.00" duration="0" />
    <emission-state time="76.00" loaded="50" emitted="4" running="4" waiting="0" ended="0" meanWaitingTime="0.00" meanTravelTime="-1.00" duration="1" />
    <emission-state time="77.00" loaded="50" emitted="4" running="4" waiting="0" ended="0" meanWaitingTime="0.00" meanTravelTime="-1.00" duration="0" />
    <emission-state time="78.00" loaded="50" emitted="4" running="4" waiting="0" ended="0" meanWaitingTime="0.00" meanTravelTime="-1.00" duration="1" />
    <emission-state time="79.00" loaded="50" emitted="4" running="4" waiting="0" ended="0" meanWaitingTime="0.00" meanTravelTime="-1.00" duration="0" />
    <emission-state time="80.00" loaded="50" emitted="6" running="6" waiting="0" ended="0" meanWaitingTime="0.00" meanTravelTime="-1.00" duration="1" />
    <emission-state time="81.00" loaded="50" emitted="6" running="6" waiting="0" ended="0" meanWaitingTime="0.00" meanTravelTime="-1.00" duration="0" />
    <emission-state time="82.00" loaded="50" emitted="6" running="6" waiting="0" ended="0" meanWaitingTime="0.00" meanTravelTime="-1.00" duration="1" />
    <emission-state time="83.00" loaded="50" emitted="6" running="6" waiting="0" ended="0" meanWaitingTime="0.00" meanTravelTime="-1.00" duration="0" />
    <emission-state time="84.00" loaded="50" emitted="6" running="6" waiting="0" ended="0" meanWaitingTime="0.00" meanTravelTime="-1.00" duration="1" />
    <emission-state time="85.00" loaded="50" emitted="6" running="6" waiting="0" ended="0" meanWaitingTime="0.00" meanTravelTime="-1.00" duration="0" />
    <emission-state time="86.00" loaded="50" emitted="6" running="6" waiting="0" ended="0" meanWaitingTime="0.00" meanTravelTime="-1.00" duration="1" />
    <emission-state time="87.00" loaded="50" emitted="6" running="6" waiting="0" ended="0" meanWaitingTime="0.00" meanTravelTime="-1.00" duration="0" />
    <emission-state time="88.00" loaded="50" emitted="6" running="6" waiting="0" ended="0" meanWaitingTime="0.00" meanTravelTime="-1.00" duration="1" />
    <emission-state time="89.00" loaded="50" emitted="6" running="6" waiting="0" ended="0" meanWaitingTime="0.00" meanTravelTime="-1.00" duration="0" />
    <emission-state time="90.00" loaded="50" emitted="6" running="6" waiting="0" ended="0" meanWaitingTime="0.00" meanTravelTime="-1.00" duration="1" />
    <emission-state time="91.00" loaded="50" emitted="6" running="6" waiting="0" ended="0" meanWaitingTime="0.00" meanTravelTime="-1.00" duration="0" />
    <emission-state time="92.00" loaded="50" emitted="6" running="6" waiting="0" ended="0" meanWaitingTime="0.00" meanTravelTime="-1.00" duration="1" />
    <emission-state time="93.00" loaded="50" emitted="6" running="6" waiting="0" ended="0" meanWaitingTime="0.00" meanTravelTime="-1.00" duration="0" />
    <emission-state time="94.00" loaded="50" emitted="6" running="6" waiting="0" ended="0" meanWaitingTime="0.00" meanTravelTime="-1.00" duration="1" />
    <emission-state time="95.00" loaded="50" emitted="6" running="6" waiting="0" ended="0" meanWaitingTime="0.00" meanTravelTime="-1.00" duration="0" />
    <emission-state time="96.00" loaded="50" emitted="6" running="6" waiting="0" ended="0" meanWaitingTime="0.00" meanTravelTime="-1.00" duration="1" />
    <emission-state time="97.00" loaded="50" emitted="6" running="6" waiting="0" ended="0" meanWaitingTime="0.00" meanTravelTime="-1.00" duration="0" />
    <emission-state time="98.00" loaded="50" emitted="6" running="6" waiting="0" ended="0" meanWaitingTime="0.00" meanTravelTime="-1.00" duration="1" />
    <emission-state time="99.00" loaded="50" emitted="6" running="6" waiting="0" ended="0" meanWaitingTime="0.00" meanTravelTime="-1.00" duration="0" />
    <emission-state time="100.00" loaded="50" emitted="6" running="6" waiting="0" ended="0" meanWaitingTime="0.00" meanTravelTime="-1.00" duration="1" />
    <emission-state time="101.00" loaded="50" emitted="6" running="6" waiting="0" ended="0" meanWaitingTime="0.00" meanTravelTime="-1.00" duration="0" />
    <emission-state time="102.00" loaded="50" emitted="6" running="6" waiting="0" ended="0" meanWaitingTime="0.00" meanTravelTime="-1.00" duration="1" />
    <emission-state time="103.00" loaded="50" emitted="6" running="6" waiting="0" ended="0" meanWaitingTime="0.00" meanTravelTime="-1.00" duration="0" />
    <emission-state time="104.00" loaded="50" emitted="6" running="6" waiting="0" ended="0" meanWaitingTime="0.00" meanTravelTime="-1.00" duration="1" />
    <emission-state time="105.00" loaded="50" emitted="6" running="6" waiting="0" ended="0" meanWaitingTime="0.00" meanTravelTime="-1.00" duration="0" />
    <emission-state time="106.00" loaded="50" emitted="6" running="6" waiting="0" ended="0" meanWaitingTime="0.00" meanTravelTime="-1.00" duration="1" />
    <emission-state time="107.00" loaded="50" emitted="6" running="6" waiting="0" ended="0" meanWaitingTime="0.00" meanTravelTime="-1.00" duration="0" />
    <emission-state time="108.00" loaded="50" emitted="6" running="6" waiting="0" ended="0" meanWaitingTime="0.00" meanTravelTime="-1.00" duration="1" />
    <emission-state time="109.00" loaded="50" emitted="6" running="6" waiting="0" ended="0" meanWaitingTime="0.00" meanTravelTime="-1.00" duration="0" />
    <emission-state time="110.00" loaded="50" emitted="6" running="6" waiting="0" ended="0" meanWaitingTime="0.00" meanTravelTime="-1.00" duration="1" />
    <emission-state time="111.00" loaded="50" emitted="6" running="6" waiting="0" ended="0" meanWaitingTime="0.00" meanTravelTime="-1.00" duration="0" />
    <emission-state time="112.00" loaded="50" emitted="6" running="6" waiting="0" ended="0" meanWaitingTime="0.00" meanTravelTime="-1.00" duration="1" />
    <emission-state time="113.00" loaded="50" emitted="6" running="6" waiting="0" ended="0" meanWaitingTime="0.00" meanTravelTime="-1.00" duration="0" />
    <emission-state time="114.00" loaded="50" emitted="6" running="6" waiting="0" ended="0" meanWaitingTime="0.00" meanTravelTime="-1.00" duration="1" />
    <emission-state time="115.00" loaded="50" emitted="6" running="6" waiting="0" ended="0" meanWaitingTime="0.00" meanTravelTime="-1.00" duration="0" />
    <emission-state time="116.00" loaded="50" emitted="6" running="6" waiting="0" ended="0" meanWaitingTime="0.00" meanTravelTime="-1.00" duration="1" />
    <emission-state time="117.00" loaded="50" emitted="6" running="6" waiting="0" ended="0" meanWaitingTime="0.00" meanTravelTime="-1.00" duration="0" />
    <emission-state time="118.00" loaded="50" emitted="6" running="6" waiting="0" ended="0" meanWaitingTime="0.00" meanTravelTime="-1.00" duration="1" />
    <emission-state time="119.00" loaded="50" emitted="6" running="6" waiting="0" ended="0" meanWaitingTime="0.00" meanTravelTime="-1.00" duration="0" />
    <emission-state time="120.00" loaded="50" emitted="8" running="8" waiting="0" ended="0" meanWaitingTime="0.00" meanTravelTime="-1.00" duration="1" />
    <emission-state time="121.00" loaded="50" emitted="8" running="8" waiting="0" ended="0" meanWaitingTime="0.00" meanTravelTime="-1.00" duration="0" />
    <emission-state time="122.00" loaded="50" emitted="8" running="8" waiting="0" ended="0" meanWaitingTime="0.00" meanTravelTime="-1.00" duration="0" />
    <emission-state time="123.00" loaded="50" emitted="8" running="8" waiting="0" ended="0" meanWaitingTime="0.00" meanTravelTime="-1.00" duration="0" />
    <emission-state time="124.00" loaded="50" emitted="8" running="8" waiting="0" ended="0" meanWaitingTime="0.00" meanTravelTime="-1.00" duration="1" />
    <emission-state time="125.00" loaded="50" emitted="8" running="8" waiting="0" ended="0" meanWaitingTime="0.00" meanTravelTime="-1.00" duration="1" />
    <emission-state time="126.00" loaded="50" emitted="8" running="8" waiting="0" ended="0" meanWaitingTime="0.00" meanTravelTime="-1.00" duration="0" />
    <emission-state time="127.00" loaded="50" emitted="8" running="8" waiting="0" ended="0" meanWaitingTime="0.00" meanTravelTime="-1.00" duration="1" />
    <emission-state time="128.00" loaded="50" emitted="8" running="8" waiting="0" ended="0" meanWaitingTime="0.00" meanTravelTime="-1.00" duration="0" />
    <emission-state time="129.00" loaded="50" emitted="8" running="8" waiting="0" ended="0" meanWaitingTime="0.00" meanTravelTime="-1.00" duration="1" />
    <emission-state time="130.00" loaded="50" emitted="8" running="8" waiting="0" ended="0" meanWaitingTime="0.00" meanTravelTime="-1.00" duration="0" />
    <emission-state time="131.00" loaded="50" emitted="8" running="8" waiting="0" ended="0" meanWaitingTime="0.00" meanTravelTime="-1.00" duration="1" />
    <emission-state time="132.00" loaded="50" emitted="8" running="8" waiting="0" ended="0" meanWaitingTime="0.00" meanTravelTime="-1.00" duration="0" />
    <emission-state time="133.00" loaded="50" emitted="8" running="8" waiting="0" ended="0" meanWaitingTime="0.00" meanTravelTime="-1.00" duration="1" />
    <emission-state time="134.00" loaded="50" emitted="8" running="8" waiting="0" ended="0" meanWaitingTime="0.00" meanTravelTime="-1.00" duration="0" />
    <emission-state time="135.00" loaded="50" emitted="8" running="8" waiting="0" ended="0" meanWaitingTime="0.00" meanTravelTime="-1.00" duration="1" />
    <emission-state time="136.00" loaded="50" emitted="8" running="8" waiting="0" ended="0" meanWaitingTime="0.00" meanTravelTime="-1.00" duration="0" />
    <emission-state time="137.00" loaded="50" emitted="8" running="8" waiting="0" ended="0" meanWaitingTime="0.00" meanTravelTime="-1.00" duration="1" />
    <emission-state time="138.00" loaded="50" emitted="8" running="8" waiting="0" ended="0" meanWaitingTime="0.00" meanTravelTime="-1.00" duration="0" />
    <emission-state time="139.00" loaded="50" emitted="8" running="8" waiting="0" ended="0" meanWaitingTime="0.00" meanTravelTime="-1.00" duration="1" />
    <emission-state time="140.00" loaded="50" emitted="8" running="8" waiting="0" ended="0" meanWaitingTime="0.00" meanTravelTime="-1.00" duration="0" />
    <emission-state time="141.00" loaded="50" emitted="8" running="8" waiting="0" ended="0" meanWaitingTime="0.00" meanTravelTime="-1.00" duration="1" />
    <emission-state time="142.00" loaded="50" emitted="8" running="8" waiting="0" ended="0" meanWaitingTime="0.00" meanTravelTime="-1.00" duration="0" />
    <emission-state time="143.00" loaded="50" emitted="8" running="8" waiting="0" ended="0" meanWaitingTime="0.00" meanTravelTime="-1.00" duration="1" />
    <emission-state time="144.00" loaded="50" emitted="8" running="8" waiting="0" ended="0" meanWaitingTime="0.00" meanTravelTime="-1.00" duration="0" />
    <emission-state time="145.00" loaded="50" emitted="8" running="8" waiting="0" ended="0" meanWaitingTime="0.00" meanTravelTime="-1.00" duration="1" />
    <emission-state time="146.00" loaded="50" emitted="8" running="8" waiting="0" ended="0" meanWaitingTime="0.00" meanTravelTime="-1.00" duration="0" />
    <emission-state time="147.00" loaded="50" emitted="8" running="8" waiting="0" ended="0" meanWaitingTime="0.00" meanTravelTime="-1.00" duration="1" />
    <emission-state time="148.00" loaded="50" emitted="8" running="8" waiting="0" ended="0" meanWaitingTime="0.00" meanTravelTime="-1.00" duration="0" />
    <emission-state time="149.00" loaded="50" emitted="8" running="8" waiting="0" ended="0" meanWaitingTime="0.00" meanTravelTime="-1.00" duration="1" />
    <emission-state time="150.00" loaded="50" emitted="8" running="8" waiting="0" ended="0" meanWaitingTime="0.00" meanTravelTime="-1.00" duration="0" />
    <emission-state time="151.00" loaded="50" emitted="8" running="8" waiting="0" ended="0" meanWaitingTime="0.00" meanTravelTime="-1.00" duration="1" />
    <emission-state time="152.00" loaded="50" emitted="8" running="8" waiting="0" ended="0" meanWaitingTime="0.00" meanTravelTime="-1.00" duration="0" />
    <emission-state time="153.00" loaded="50" emitted="8" running="8" waiting="0" ended="0" meanWaitingTime="0.00" meanTravelTime="-1.00" duration="1" />
    <emission-state time="154.00" loaded="50" emitted="8" running="8" waiting="0" ended="0" meanWaitingTime="0.00" meanTravelTime="-1.00" duration="0" />
    <emission-state time="155.00" loaded="50" emitted="8" running="8" waiting="0" ended="0" meanWaitingTime="0.00" meanTravelTime="-1.00" duration="1" />
    <emission-state time="156.00" loaded="50" emitted="8" running="8" waiting="0" ended="0" meanWaitingTime="0.00" meanTravelTime="-1.00" duration="0" />
    <emission-state time="157.00" loaded="50" emitted="8" running="8" waiting="0" ended="0" meanWaitingTime="0.00" meanTravelTime="-1.00" duration="1" />
    <emission-state time="158.00" loaded="50" emitted="8" running="8" waiting="0" ended="0" meanWaitingTime="0.00" meanTravelTime="-1.00" duration="0" />
    <emission-state time="159.00" loaded="50" emitted="8" running="8" waiting="0" ended="0" meanWaitingTime="0.00" meanTravelTime="-1.00" duration="1" />
    <emission-state time="160.00" loaded="50" emitted="10" running="10" waiting="0" ended="0" meanWaitingTime="0.00" meanTravelTime="-1.00" duration="0" />
    <emission-state time="161.00" loaded="50" emitted="10" running="10" waiting="0" ended="0" meanWaitingTime="0.00" meanTravelTime="-1.00" duration="1" />
    <emission-state time="162.00" loaded="50" emitted="10" running="10" waiting="0" ended="0" meanWaitingTime="0.00" meanTravelTime="-1.00" duration="0" />
    <emission-state time="163.00" loaded="50" emitted="10" running="10" waiting="0" ended="0" meanWaitingTime="0.00" meanTravelTime="-1.00" duration="1" />
    <emission-state time="164.00" loaded="50" emitted="10" running="10" waiting="0" ended="0" meanWaitingTime="0.00" meanTravelTime="-1.00" duration="0" />
    <emission-state time="165.00" loaded="50" emitted="10" running="10" waiting="0" ended="0" meanWaitingTime="0.00" meanTravelTime="-1.00" duration="1" />
    <emission-state time="166.00" loaded="50" emitted="10" running="10" waiting="0" ended="0" meanWaitingTime="0.00" meanTravelTime="-1.00" duration="0" />
    <emission-state time="167.00" loaded="50" emitted="10" running="10" waiting="0" ended="0" meanWaitingTime="0.00" meanTravelTime="-1.00" duration="1" />
    <emission-state time="168.00" loaded="50" emitted="10" running="10" waiting="0" ended="0" meanWaitingTime="0.00" meanTravelTime="-1.00" duration="0" />
    <emission-state time="169.00" loaded="50" emitted="10" running="10" waiting="0" ended="0" meanWaitingTime="0.00" meanTravelTime="-1.00" duration="1" />
    <emission-state time="170.00" loaded="50" emitted="10" running="10" waiting="0" ended="0" meanWaitingTime="0.00" meanTravelTime="-1.00" duration="0" />
    <emission-state time="171.00" loaded="50" emitted="10" running="10" waiting="0" ended="0" meanWaitingTime="0.00" meanTravelTime="-1.00" duration="1" />
    <emission-state time="172.00" loaded="50" emitted="10" running="10" waiting="0" ended="0" meanWaitingTime="0.00" meanTravelTime="-1.00" duration="0" />
    <emission-state time="173.00" loaded="50" emitted="10" running="10" waiting="0" ended="0" meanWaitingTime="0.00" meanTravelTime="-1.00" duration="1" />
    <emission-state time="174.00" loaded="50" emitted="10" running="10" waiting="0" ended="0" meanWaitingTime="0.00" meanTravelTime="-1.00" duration="1" />
    <emission-state time="175.00" loaded="50" emitted="10" running="10" waiting="0" ended="0" meanWaitingTime="0.00" meanTravelTime="-1.00" duration="0" />
    <emission-state time="176.00" loaded="50" emitted="10" running="10" waiting="0" ended="0" meanWaitingTime="0.00" meanTravelTime="-1.00" duration="1" />
    <emission-state time="177.00" loaded="50" emitted="10" running="10" waiting="0" ended="0" meanWaitingTime="0.00" meanTravelTime="-1.00" duration="0" />
    <emission-state time="178.00" loaded="50" emitted="10" running="10" waiting="0" ended="0" meanWaitingTime="0.00" meanTravelTime="-1.00" duration="1" />
    <emission-state time="179.00" loaded="50" emitted="10" running="10" waiting="0" ended="0" meanWaitingTime="0.00" meanTravelTime="-1.00" duration="0" />
    <emission-state time="180.00" loaded="50" emitted="10" running="10" waiting="0" ended="0" meanWaitingTime="0.00" meanTravelTime="-1.00" duration="1" />
    <emission-state time="181.00" loaded="50" emitted="10" running="10" waiting="0" ended="0" meanWaitingTime="0.00" meanTravelTime="-1.00" duration="0" />
    <emission-state time="182.00" loaded="50" emitted="10" running="10" waiting="0" ended="0" meanWaitingTime="0.00" meanTravelTime="-1.00" duration="1" />
    <emission-state time="183.00" loaded="50" emitted="10" running="10" waiting="0" ended="0" meanWaitingTime="0.00" meanTravelTime="-1.00" duration="0" />
    <emission-state time="184.00" loaded="50" emitted="10" running="10" waiting="0" ended="0" meanWaitingTime="0.00" meanTravelTime="-1.00" duration="1" />
    <emission-state time="185.00" loaded="50" emitted="10" running="10" waiting="0" ended="0" meanWaitingTime="0.00" meanTravelTime="-1.00" duration="0" />
    <emission-state time="186.00" loaded="50" emitted="10" running="10" waiting="0" ended="0" meanWaitingTime="0.00" meanTravelTime="-1.00" duration="1" />